13
	Energy:      -1.9600597
Ru         0.35880       -0.63043        0.37531
C          0.28744        1.48549       -0.06610
C          2.39022       -0.40236        1.08190
C          0.43071       -2.74684        0.81447
C         -1.67302       -0.85603       -0.32978
C          1.10971       -1.03101       -1.61307
C         -0.39145       -0.23199        2.36394
O         -0.78606       -0.02241        3.39999
O          0.25183        2.58975       -0.29361
O         -2.73434       -0.97505       -0.69365
O          0.46675       -3.85148        1.03979
O          3.45025       -0.28094        1.44705
O          1.50452       -1.24252       -2.64799
